/*--------------------------------*- C++ -*----------------------------------*  =========                 |
  \      /  F ield         | OpenFOAM: The Open Source CFD Toolbox
   \    /   O peration     | Website:  https://openfoam.org
    \  /    A nd           | Version:  dev
     \/     M anipulation  |
\*---------------------------------------------------------------------------*/
FoamFile
{
    format      ascii;
    class       volScalarField;
    object      T;
}
// * * * * * * * * * * * * * * * * * * * * * * * * * * * * * * * * * * * * * //

#include "${FOAM_CASE}/constant/globalVars" 

dimensions      [0 0 0 1 0 0 0];

internalField   uniform $wallT;

boundaryField
{
    inlet
    {
        type            uniformFixedValue;
        uniformValue table 
        (
(0.0 708.658)
(0.657074363 829.433)
(1.677074237 881.05)
(2.767074108 910.209)
(3.757074522 926.789)
(4.777074396 936.497)
(5.80707409 942.393)
(6.857074681 946.393)
(7.897074195 949.679)
(8.897074428 951.464)
(9.957074211 952.964)
(10.95707444 954.25)
(11.99707459 955.393)
(13.04707455 956.536)
(14.0570746 957.393)
(15.11707439 958.178)
(16.11707462 958.964)
(17.15707413 959.75)
(18.24707463 960.464)
(19.23707442 961.392)
(20.24707447 962.178)
(21.27707417 962.892)
(22.31707431 963.535)
(23.38707454 964.178)
(24.39707459 964.892)
(25.42707429 965.678)
(26.44707416 966.321)
(27.50707457 966.821)
(28.54707409 967.321)
(29.55707414 967.821)
(30.6070741 968.392)
(31.64707425 968.821)
(32.66707412 969.178)
(33.67707417 969.392)
(34.69707468 969.464)
(35.72707437 969.321)
(36.77707433 968.916)
(37.79707421 968.559)
(38.86707444 968.273)
(39.87707449 967.987)
(40.89707437 967.63)
(41.94707433 967.345)
(42.97707465 966.916)
(44.00707434 966.488)
(45.02707422 966.202)
(46.06707436 965.916)
(47.13707459 965.63)
(48.15707447 965.273)
(49.20707443 964.988)
(50.18707439 964.559)
(51.20707427 964.059)
(52.24707441 963.559)
(53.2770741 962.916)
(54.32707407 962.488)
(55.33707412 962.059)
(56.36707444 961.916)
(57.40707458 962.273)
(58.42707446 962.916)
(59.47707442 963.63)
(60.49707429 964.559)
(61.52707462 965.488)
(62.56707413 966.202)
(63.63707436 967.059)
(64.65707424 967.987)
(65.65707447 968.916)
(66.70707443 969.987)
(67.70707467 971.344)
(68.74707418 972.844)
(69.79707414 975.201)
(70.81707465 977.273)
 );
    }
    "sides|outlet"
    {
        type            zeroGradient;
    }

}

// ************************************************************************* //
