/*--------------------------------*- C++ -*----------------------------------*\
  =========                 |
  \\      /  F ield         | OpenFOAM: The Open Source CFD Toolbox
   \\    /   O peration     | Website:  https://openfoam.org
    \\  /    A nd           | Version:  dev
     \\/     M anipulation  |
\*---------------------------------------------------------------------------*/
FoamFile
{
    format      ascii;
    class       volVectorField;
    object      U;
}
// * * * * * * * * * * * * * * * * * * * * * * * * * * * * * * * * * * * * * //

#include "${FOAM_CASE}/constant/globalVars"

dimensions      [0 1 -1 0 0 0 0];

internalField   uniform (0 0 0);

boundaryField
{
    inlet
    {
        type            fixedValue;
        value 	uniform ($Uin 0.0 0.0);
    }

    outlet
    {
        type            inletOutlet;
        value           uniform (0 0 0);
        inletValue      uniform (0 0 0);
    }
    
    "sides|upperWall"
    {
        type            noSlip;
        value           uniform (0 0 0);
        inletValue      uniform (0 0 0);
    }
    
    defaultFaces
    {
    	type empty;
    }
}

// ************************************************************************* //
