/*--------------------------------*- C++ -*----------------------------------*  =========                 |
  \      /  F ield         | OpenFOAM: The Open Source CFD Toolbox
   \    /   O peration     | Website:  https://openfoam.org
    \  /    A nd           | Version:  dev
     \/     M anipulation  |
\*---------------------------------------------------------------------------*/
FoamFile
{
    format      ascii;
    class       volScalarField;
    object      T;
}
// * * * * * * * * * * * * * * * * * * * * * * * * * * * * * * * * * * * * * //

#include "${FOAM_CASE}/constant/globalVars" 

dimensions      [0 0 0 1 0 0 0];

internalField   uniform $wallT;

boundaryField
{
    inlet
    {
        type            uniformFixedValue;
        uniformValue table 
        (
(0.132160401 608.0229999999999)
(1.166327106 802.588)
(2.197993855 802.588)
(3.228827234 825.654)
(4.26132725 837.578)
(5.291327153 839.0799999999999)
(6.318827101 844.197)
(7.349660428 844.197)
(8.382160444 846.427)
(9.414660459 846.427)
(10.44882706 847.3973333)
(11.47966039 847.3973333)
(12.50799376 847.9763333)
(13.54049377 847.9763333)
(14.57549374 848.5163332999999)
(15.60716039 849.0093333)
(16.63382707 849.0093333)
(17.66132707 849.776)
(18.69299377 849.776)
(19.72466047 850.5973333)
(20.75466047 850.5973333)
(21.78716049 851.38)
(22.82049382 851.38)
(23.85299384 852.225)
(24.88382717 852.225)
(25.91132706 852.225)
(26.93882706 853.43)
(27.96882718 853.43)
(29.00216051 854.4076666999999)
(30.03549379 854.4076666999999)
(31.06882712 854.8303333)
(32.10299378 854.8303333)
(33.13466042 855.879)
(34.16466043 855.879)
(35.19382707 856.317)
(36.22382702 856.5516666999999)
(37.25466035 856.7863333)
(38.28549368 856.8883333)
(39.31966038 856.8883333)
(40.35466046 857.5219999999999)
(41.38466046 857.5219999999999)
(42.41132715 858.4843333)
(43.44132715 858.4843333)
(44.47466044 858.9303333)
(45.50882709 859.165)
(46.54299374 859.6809999999999)
(47.57299375 859.8923333)
(48.60132717 859.8923333)
(49.6363272 860.5266667)
(50.6729938 860.5266667)
(51.70299381 861.4183333)
(52.73299382 861.4183333)
(53.76549378 862.0756666999999)
(54.7979938 862.0756666999999)
(55.83299382 862.334)
(56.86882711 862.334)
(57.90216044 862.7173333)
(58.93466051 863.429)
(59.96799385 863.429)
(60.9979938 863.8283332999999)
(62.0254938 863.8283332999999)
(63.05549381 864.7669999999999)
(64.08632714 864.7669999999999)
(65.11716046 865.0646667)
(66.15132706 865.0646667)
(67.18632703 865.4793333)
(68.21799373 865.7843333)
(69.24716042 866.0896667)
(70.27716043 866.4886667)
(71.30966039 866.4886667)
(72.34382704 867.0283333)
(73.38049376 867.0283333)
(74.41716047 867.5056667)
(75.4504938 867.5056667)
(76.47966049 867.6463332999999)
(77.50882718 867.9046667)
(78.54132715 868.6089999999999)
(79.57299384 868.8906667)
(80.60216053 868.8906667)
(81.63299375 869.2976666999999)
(82.66716035 869.2976666999999)
(83.69882705 869.6966666999999)
(84.72799374 869.6966666999999)
(85.75966044 870.3303333)
(86.79299377 870.3303333)
(87.82716042 870.6823333)
(88.86132713 870.6823333)
(89.89299383 870.6823333)
(90.92299383 871.1519999999999)
(91.95299384 871.1519999999999)
(92.98382717 871.6213333)
(94.0146605 871.6213333)
(95.04632719 872.1846667)
(96.08049385 872.1846667)
(97.11382707 872.318)
(98.14549367 872.318)
(99.17799374 872.7716667)
(100.2121605 873.0296667)
(101.2463271 873.0063332999999)
(102.2788271 873.1003333)
(103.3088271 873.1003333)
(104.3388271 873.4286667)
(105.3704938 873.4286667)
(106.4013271 874.2033332999999)
(107.4329938 874.2033332999999)
(108.4638272 874.3676667)
(109.4929938 874.391)
(110.5246603 874.5786667)
(111.5563269 874.9073333)
(112.5871603 874.9073333)
(113.6188271 875.3693333)
(114.6488271 875.3693333)
(115.6796605 875.6586667)
(116.7129937 875.6586667)
(117.746327 876.1046666999999)
(118.781327 876.1046666999999)
(119.8163271 876.3629999999999)
(120.8488271 876.3629999999999)
(121.8804937 876.3629999999999)
(122.9121604 876.5896667)
(123.9446604 876.5896667)
(124.9804937 876.5736667)
(126.0146605 876.5736667)
(127.0421605 876.8556667)
(128.0704939 876.8556667)
(129.1029939 877.5446667)
(130.1346605 877.5446667)
(131.1654938 877.5603333)
(132.1988271 877.7946667)
(133.2304938 877.7946667)
(134.258827 878.3033333)
(135.2904937 878.3033333)
(136.3246604 878.7726667)
(137.3579937 878.7726667)
(138.3904937 878.9843333)
(139.4213271 878.9843333)
(140.4513271 879.0076667)
(141.4796604 879.0623333)
(142.5079938 879.2733333)
(143.5388271 879.3203333)
(144.5713272 879.3203333)
(145.6038272 879.5393333)
(146.6354939 879.5393333)
(147.6688272 879.8683333)
(148.7013271 879.8683333)
(149.7313271 879.8053333)
(150.7613271 879.8053333)
(151.7913271 880.533)
(152.8221605 880.533)
(153.8529939 880.533)
(154.8829939 880.9476667)
(155.9121605 880.9476667)
(156.9421604 880.9713333)
(157.9754938 880.9713333)
(159.0088272 881.2996667)
(160.0371605 881.2996667)
(161.0679938 881.5656667)
(162.1071604 881.5656667)
(163.1446604 881.6676666999999)
(164.176327 882.4423333)
(165.2054938 882.4423333)
(166.2354938 883.414)
(167.2796605 883.414)
(168.3304939 883.9083333)
(169.3604939 883.9083333)
(170.3796605 883.4593333)
(171.4063272 883.4593333)
(172.4388271 884.1173332999999)
 );
    }
    "sides|outlet"
    {
        type            zeroGradient;
    }

}

// ************************************************************************* //
